file 78398948 1450928236                                        
version 2
run General-0-20151224-01:26:46-10816
attr configname General
attr datetime 20151224-01:26:46
attr experiment General
attr inifile Industry.ini
attr iterationvars ""
attr iterationvars2 $repetition=0
attr measurement ""
attr network industry4
attr processid 10816
attr repetition 0
attr replication #0
attr resultdir results
attr runnumber 0
attr seedset 0

vector 89  industry4.RFIDWeigth.phyRFID  bitrate:vector  ETV
attr interpolationmode  sample-hold
attr title  "tx bitrate, vector"
attr unit  bps
vector 91  industry4.RFIDWeigth.phyRFID  radioState:vector  ETV
attr interpolationmode  sample-hold
attr title  "radio state (enum), vector"
vector 90  industry4.RFIDWeigth.phyRFID  channelNo:vector  ETV
attr interpolationmode  sample-hold
attr title  "channel no, vector"
vector 114  industry4.RFIDSize.phyRFID  bitrate:vector  ETV
attr interpolationmode  sample-hold
attr title  "tx bitrate, vector"
attr unit  bps
vector 116  industry4.RFIDSize.phyRFID  radioState:vector  ETV
attr interpolationmode  sample-hold
attr title  "radio state (enum), vector"
vector 115  industry4.RFIDSize.phyRFID  channelNo:vector  ETV
attr interpolationmode  sample-hold
attr title  "channel no, vector"
vector 139  industry4.RFIDProduct.phyRFID  bitrate:vector  ETV
attr interpolationmode  sample-hold
attr title  "tx bitrate, vector"
attr unit  bps
vector 141  industry4.RFIDProduct.phyRFID  radioState:vector  ETV
attr interpolationmode  sample-hold
attr title  "radio state (enum), vector"
vector 140  industry4.RFIDProduct.phyRFID  channelNo:vector  ETV
attr interpolationmode  sample-hold
attr title  "channel no, vector"
vector 341  industry4.gateway.tcp  tcpRcvQueueBytes  ETV
vector 328  industry4.gateway.tcp  "advertised window"  ETV
vector 327  industry4.gateway.tcp  "receive window"  ETV
vector 330  industry4.gateway.tcp  "sent ack"  ETV
vector 365  industry4.switch2.tcp  tcpRcvQueueBytes  ETV
vector 352  industry4.switch2.tcp  "advertised window"  ETV
vector 351  industry4.switch2.tcp  "receive window"  ETV
vector 354  industry4.switch2.tcp  "sent ack"  ETV
vector 71  industry4.gateway.networkLayer.arp  sentReq:vector  ETV
attr title  "ARP request sent, vector"
vector 215  industry4.switch2.networkLayer.arp  sentReq:vector  ETV
attr title  "ARP request sent, vector"
vector 82  industry4.gateway.eth[0].encap  encapPk:vector(packetBytes)  ETV
attr interpolationmode  none
attr source  encapPk
attr title  "packets encapsulated, vector(packetBytes)"
vector 226  industry4.switch2.eth[0].encap  encapPk:vector(packetBytes)  ETV
attr interpolationmode  none
attr source  encapPk
attr title  "packets encapsulated, vector(packetBytes)"
vector 78  industry4.gateway.eth[0].mac  rxPkFromHL:vector(packetBytes)  ETV
attr interpolationmode  none
attr source  rxPkFromHL
attr title  "packet bytes from higher layer, vector(packetBytes)"
vector 222  industry4.switch2.eth[0].mac  rxPkFromHL:vector(packetBytes)  ETV
attr interpolationmode  none
attr source  rxPkFromHL
attr title  "packet bytes from higher layer, vector(packetBytes)"
vector 73  industry4.gateway.eth[0].mac  txPk:vector(packetBytes)  ETV
attr interpolationmode  none
attr source  txPk
attr title  "packets transmitted, vector(packetBytes)"
vector 217  industry4.switch2.eth[0].mac  txPk:vector(packetBytes)  ETV
attr interpolationmode  none
attr source  txPk
attr title  "packets transmitted, vector(packetBytes)"
vector 244  industry4.controller.eth[1].mac  rxPkOk:vector(packetBytes)  ETV
attr interpolationmode  none
attr source  rxPkOk
attr title  "packets received OK, vector(packetBytes)"
vector 245  industry4.controller.eth[1].mac  passedUpPk:vector(packetBytes)  ETV
attr interpolationmode  none
attr source  packetSentToUpper
attr title  "packets passed to higher layer, vector(packetBytes)"
vector 232  industry4.controller.eth[0].mac  rxPkOk:vector(packetBytes)  ETV
attr interpolationmode  none
attr source  rxPkOk
attr title  "packets received OK, vector(packetBytes)"
vector 233  industry4.controller.eth[0].mac  passedUpPk:vector(packetBytes)  ETV
attr interpolationmode  none
attr source  packetSentToUpper
attr title  "packets passed to higher layer, vector(packetBytes)"
vector 253  industry4.controller.eth[1].encap  decapPk:vector(packetBytes)  ETV
attr interpolationmode  none
attr source  decapPk
attr title  "packets decapsulated, vector(packetBytes)"
vector 241  industry4.controller.eth[0].encap  decapPk:vector(packetBytes)  ETV
attr interpolationmode  none
attr source  decapPk
attr title  "packets decapsulated, vector(packetBytes)"
vector 230  industry4.controller.networkLayer.arp  sentReply:vector  ETV
attr title  "ARP replies sent, vector"
vector 252  industry4.controller.eth[1].encap  encapPk:vector(packetBytes)  ETV
attr interpolationmode  none
attr source  encapPk
attr title  "packets encapsulated, vector(packetBytes)"
vector 240  industry4.controller.eth[0].encap  encapPk:vector(packetBytes)  ETV
attr interpolationmode  none
attr source  encapPk
attr title  "packets encapsulated, vector(packetBytes)"
vector 248  industry4.controller.eth[1].mac  rxPkFromHL:vector(packetBytes)  ETV
attr interpolationmode  none
attr source  rxPkFromHL
attr title  "packet bytes from higher layer, vector(packetBytes)"
vector 236  industry4.controller.eth[0].mac  rxPkFromHL:vector(packetBytes)  ETV
attr interpolationmode  none
attr source  rxPkFromHL
attr title  "packet bytes from higher layer, vector(packetBytes)"
vector 243  industry4.controller.eth[1].mac  txPk:vector(packetBytes)  ETV
attr interpolationmode  none
attr source  txPk
attr title  "packets transmitted, vector(packetBytes)"
vector 231  industry4.controller.eth[0].mac  txPk:vector(packetBytes)  ETV
attr interpolationmode  none
attr source  txPk
attr title  "packets transmitted, vector(packetBytes)"
vector 74  industry4.gateway.eth[0].mac  rxPkOk:vector(packetBytes)  ETV
attr interpolationmode  none
attr source  rxPkOk
attr title  "packets received OK, vector(packetBytes)"
vector 75  industry4.gateway.eth[0].mac  passedUpPk:vector(packetBytes)  ETV
attr interpolationmode  none
attr source  packetSentToUpper
attr title  "packets passed to higher layer, vector(packetBytes)"
vector 218  industry4.switch2.eth[0].mac  rxPkOk:vector(packetBytes)  ETV
attr interpolationmode  none
attr source  rxPkOk
attr title  "packets received OK, vector(packetBytes)"
vector 219  industry4.switch2.eth[0].mac  passedUpPk:vector(packetBytes)  ETV
attr interpolationmode  none
attr source  packetSentToUpper
attr title  "packets passed to higher layer, vector(packetBytes)"
vector 83  industry4.gateway.eth[0].encap  decapPk:vector(packetBytes)  ETV
attr interpolationmode  none
attr source  decapPk
attr title  "packets decapsulated, vector(packetBytes)"
vector 227  industry4.switch2.eth[0].encap  decapPk:vector(packetBytes)  ETV
attr interpolationmode  none
attr source  decapPk
attr title  "packets decapsulated, vector(packetBytes)"
vector 283  industry4.controller.tcp  "rcvd seq"  ETV
vector 284  industry4.controller.tcp  "rcvd ack"  ETV
vector 280  industry4.controller.tcp  "advertised window"  ETV
vector 278  industry4.controller.tcp  "send window"  ETV
vector 293  industry4.controller.tcp  tcpRcvQueueBytes  ETV
vector 279  industry4.controller.tcp  "receive window"  ETV
vector 282  industry4.controller.tcp  "sent ack"  ETV
vector 379  industry4.controller.tcp  "rcvd seq"  ETV
vector 380  industry4.controller.tcp  "rcvd ack"  ETV
vector 376  industry4.controller.tcp  "advertised window"  ETV
vector 374  industry4.controller.tcp  "send window"  ETV
vector 389  industry4.controller.tcp  tcpRcvQueueBytes  ETV
vector 375  industry4.controller.tcp  "receive window"  ETV
vector 378  industry4.controller.tcp  "sent ack"  ETV
vector 331  industry4.gateway.tcp  "rcvd seq"  ETV
vector 332  industry4.gateway.tcp  "rcvd ack"  ETV
vector 326  industry4.gateway.tcp  "send window"  ETV
vector 355  industry4.switch2.tcp  "rcvd seq"  ETV
vector 356  industry4.switch2.tcp  "rcvd ack"  ETV
vector 350  industry4.switch2.tcp  "send window"  ETV
vector 285  industry4.controller.tcp  "unacked bytes"  ETV
vector 381  industry4.controller.tcp  "unacked bytes"  ETV
vector 281  industry4.controller.tcp  "sent seq"  ETV
vector 377  industry4.controller.tcp  "sent seq"  ETV
vector 334  industry4.gateway.tcp  "rcvd dupAcks"  ETV
vector 358  industry4.switch2.tcp  "rcvd dupAcks"  ETV
vector 329  industry4.gateway.tcp  "sent seq"  ETV
vector 333  industry4.gateway.tcp  "unacked bytes"  ETV
vector 353  industry4.switch2.tcp  "sent seq"  ETV
vector 357  industry4.switch2.tcp  "unacked bytes"  ETV
vector 297  industry4.controller.tcp  "measured RTT"  ETV
vector 298  industry4.controller.tcp  "smoothed RTT"  ETV
vector 299  industry4.controller.tcp  RTTVAR  ETV
vector 300  industry4.controller.tcp  RTO  ETV
vector 295  industry4.controller.tcp  cwnd  ETV
vector 286  industry4.controller.tcp  "rcvd dupAcks"  ETV
vector 393  industry4.controller.tcp  "measured RTT"  ETV
vector 394  industry4.controller.tcp  "smoothed RTT"  ETV
vector 395  industry4.controller.tcp  RTTVAR  ETV
vector 396  industry4.controller.tcp  RTO  ETV
vector 391  industry4.controller.tcp  cwnd  ETV
vector 382  industry4.controller.tcp  "rcvd dupAcks"  ETV
vector 345  industry4.gateway.tcp  "measured RTT"  ETV
vector 346  industry4.gateway.tcp  "smoothed RTT"  ETV
vector 347  industry4.gateway.tcp  RTTVAR  ETV
vector 348  industry4.gateway.tcp  RTO  ETV
vector 343  industry4.gateway.tcp  cwnd  ETV
vector 369  industry4.switch2.tcp  "measured RTT"  ETV
vector 370  industry4.switch2.tcp  "smoothed RTT"  ETV
vector 371  industry4.switch2.tcp  RTTVAR  ETV
vector 372  industry4.switch2.tcp  RTO  ETV
vector 367  industry4.switch2.tcp  cwnd  ETV
vector 3  industry4.client.tcpApp[0]  numActiveSessions:vector  ETV
attr interpolationmode  sample-hold
attr source  sum(connect)
attr title  "number of active sessions, vector"
vector 437  industry4.client.tcp  tcpRcvQueueBytes  ETV
vector 424  industry4.client.tcp  "advertised window"  ETV
vector 423  industry4.client.tcp  "receive window"  ETV
vector 426  industry4.client.tcp  "sent ack"  ETV
vector 4  industry4.client.networkLayer.arp  sentReq:vector  ETV
attr title  "ARP request sent, vector"
vector 18  industry4.client.eth[0].encap  encapPk:vector(packetBytes)  ETV
attr interpolationmode  none
attr source  encapPk
attr title  "packets encapsulated, vector(packetBytes)"
vector 14  industry4.client.eth[0].mac  rxPkFromHL:vector(packetBytes)  ETV
attr interpolationmode  none
attr source  rxPkFromHL
attr title  "packet bytes from higher layer, vector(packetBytes)"
vector 9  industry4.client.eth[0].mac  txPk:vector(packetBytes)  ETV
attr interpolationmode  none
attr source  txPk
attr title  "packets transmitted, vector(packetBytes)"
vector 61  industry4.gateway.etherMAC[2]  rxPkOk:vector(packetBytes)  ETV
attr interpolationmode  none
attr source  rxPkOk
attr title  "packets received OK, vector(packetBytes)"
vector 62  industry4.gateway.etherMAC[2]  passedUpPk:vector(packetBytes)  ETV
attr interpolationmode  none
attr source  packetSentToUpper
attr title  "packets passed to higher layer, vector(packetBytes)"
vector 43  industry4.gateway.etherMAC[0]  rxPkFromHL:vector(packetBytes)  ETV
attr interpolationmode  none
attr source  rxPkFromHL
attr title  "packet bytes from higher layer, vector(packetBytes)"
vector 54  industry4.gateway.etherMAC[1]  rxPkFromHL:vector(packetBytes)  ETV
attr interpolationmode  none
attr source  rxPkFromHL
attr title  "packet bytes from higher layer, vector(packetBytes)"
vector 38  industry4.gateway.etherMAC[0]  txPk:vector(packetBytes)  ETV
attr interpolationmode  none
attr source  txPk
attr title  "packets transmitted, vector(packetBytes)"
vector 49  industry4.gateway.etherMAC[1]  txPk:vector(packetBytes)  ETV
attr interpolationmode  none
attr source  txPk
attr title  "packets transmitted, vector(packetBytes)"
vector 27  industry4.supplier.eth[0].mac  rxPkOk:vector(packetBytes)  ETV
attr interpolationmode  none
attr source  rxPkOk
attr title  "packets received OK, vector(packetBytes)"
vector 28  industry4.supplier.eth[0].mac  passedUpPk:vector(packetBytes)  ETV
attr interpolationmode  none
attr source  packetSentToUpper
attr title  "packets passed to higher layer, vector(packetBytes)"
vector 194  industry4.switch2.etherMAC[3]  rxPkOk:vector(packetBytes)  ETV
attr interpolationmode  none
attr source  rxPkOk
attr title  "packets received OK, vector(packetBytes)"
vector 195  industry4.switch2.etherMAC[3]  passedUpPk:vector(packetBytes)  ETV
attr interpolationmode  none
attr source  packetSentToUpper
attr title  "packets passed to higher layer, vector(packetBytes)"
vector 36  industry4.supplier.eth[0].encap  decapPk:vector(packetBytes)  ETV
attr interpolationmode  none
attr source  decapPk
attr title  "packets decapsulated, vector(packetBytes)"
vector 165  industry4.switch2.etherMAC[0]  rxPkFromHL:vector(packetBytes)  ETV
attr interpolationmode  none
attr source  rxPkFromHL
attr title  "packet bytes from higher layer, vector(packetBytes)"
vector 176  industry4.switch2.etherMAC[1]  rxPkFromHL:vector(packetBytes)  ETV
attr interpolationmode  none
attr source  rxPkFromHL
attr title  "packet bytes from higher layer, vector(packetBytes)"
vector 187  industry4.switch2.etherMAC[2]  rxPkFromHL:vector(packetBytes)  ETV
attr interpolationmode  none
attr source  rxPkFromHL
attr title  "packet bytes from higher layer, vector(packetBytes)"
vector 209  industry4.switch2.etherMAC[4]  rxPkFromHL:vector(packetBytes)  ETV
attr interpolationmode  none
attr source  rxPkFromHL
attr title  "packet bytes from higher layer, vector(packetBytes)"
vector 160  industry4.switch2.etherMAC[0]  txPk:vector(packetBytes)  ETV
attr interpolationmode  none
attr source  txPk
attr title  "packets transmitted, vector(packetBytes)"
vector 171  industry4.switch2.etherMAC[1]  txPk:vector(packetBytes)  ETV
attr interpolationmode  none
attr source  txPk
attr title  "packets transmitted, vector(packetBytes)"
vector 182  industry4.switch2.etherMAC[2]  txPk:vector(packetBytes)  ETV
attr interpolationmode  none
attr source  txPk
attr title  "packets transmitted, vector(packetBytes)"
vector 204  industry4.switch2.etherMAC[4]  txPk:vector(packetBytes)  ETV
attr interpolationmode  none
attr source  txPk
attr title  "packets transmitted, vector(packetBytes)"
vector 99  industry4.RFIDWeigth.eth[0].mac  rxPkOk:vector(packetBytes)  ETV
attr interpolationmode  none
attr source  rxPkOk
attr title  "packets received OK, vector(packetBytes)"
vector 100  industry4.RFIDWeigth.eth[0].mac  passedUpPk:vector(packetBytes)  ETV
attr interpolationmode  none
attr source  packetSentToUpper
attr title  "packets passed to higher layer, vector(packetBytes)"
vector 124  industry4.RFIDSize.eth[0].mac  rxPkOk:vector(packetBytes)  ETV
attr interpolationmode  none
attr source  rxPkOk
attr title  "packets received OK, vector(packetBytes)"
vector 125  industry4.RFIDSize.eth[0].mac  passedUpPk:vector(packetBytes)  ETV
attr interpolationmode  none
attr source  packetSentToUpper
attr title  "packets passed to higher layer, vector(packetBytes)"
vector 149  industry4.RFIDProduct.eth[0].mac  rxPkOk:vector(packetBytes)  ETV
attr interpolationmode  none
attr source  rxPkOk
attr title  "packets received OK, vector(packetBytes)"
vector 150  industry4.RFIDProduct.eth[0].mac  passedUpPk:vector(packetBytes)  ETV
attr interpolationmode  none
attr source  packetSentToUpper
attr title  "packets passed to higher layer, vector(packetBytes)"
vector 264  industry4.server.eth[0].mac  rxPkOk:vector(packetBytes)  ETV
attr interpolationmode  none
attr source  rxPkOk
attr title  "packets received OK, vector(packetBytes)"
vector 265  industry4.server.eth[0].mac  passedUpPk:vector(packetBytes)  ETV
attr interpolationmode  none
attr source  packetSentToUpper
attr title  "packets passed to higher layer, vector(packetBytes)"
vector 108  industry4.RFIDWeigth.eth[0].encap  decapPk:vector(packetBytes)  ETV
attr interpolationmode  none
attr source  decapPk
attr title  "packets decapsulated, vector(packetBytes)"
vector 133  industry4.RFIDSize.eth[0].encap  decapPk:vector(packetBytes)  ETV
attr interpolationmode  none
attr source  decapPk
attr title  "packets decapsulated, vector(packetBytes)"
vector 158  industry4.RFIDProduct.eth[0].encap  decapPk:vector(packetBytes)  ETV
attr interpolationmode  none
attr source  decapPk
attr title  "packets decapsulated, vector(packetBytes)"
vector 273  industry4.server.eth[0].encap  decapPk:vector(packetBytes)  ETV
attr interpolationmode  none
attr source  decapPk
attr title  "packets decapsulated, vector(packetBytes)"
vector 259  industry4.server.networkLayer.arp  sentReply:vector  ETV
attr title  "ARP replies sent, vector"
vector 272  industry4.server.eth[0].encap  encapPk:vector(packetBytes)  ETV
attr interpolationmode  none
attr source  encapPk
attr title  "packets encapsulated, vector(packetBytes)"
vector 268  industry4.server.eth[0].mac  rxPkFromHL:vector(packetBytes)  ETV
attr interpolationmode  none
attr source  rxPkFromHL
attr title  "packet bytes from higher layer, vector(packetBytes)"
vector 263  industry4.server.eth[0].mac  txPk:vector(packetBytes)  ETV
attr interpolationmode  none
attr source  txPk
attr title  "packets transmitted, vector(packetBytes)"
vector 205  industry4.switch2.etherMAC[4]  rxPkOk:vector(packetBytes)  ETV
attr interpolationmode  none
attr source  rxPkOk
attr title  "packets received OK, vector(packetBytes)"
vector 206  industry4.switch2.etherMAC[4]  passedUpPk:vector(packetBytes)  ETV
attr interpolationmode  none
attr source  packetSentToUpper
attr title  "packets passed to higher layer, vector(packetBytes)"
vector 198  industry4.switch2.etherMAC[3]  rxPkFromHL:vector(packetBytes)  ETV
attr interpolationmode  none
attr source  rxPkFromHL
attr title  "packet bytes from higher layer, vector(packetBytes)"
vector 193  industry4.switch2.etherMAC[3]  txPk:vector(packetBytes)  ETV
attr interpolationmode  none
attr source  txPk
attr title  "packets transmitted, vector(packetBytes)"
vector 39  industry4.gateway.etherMAC[0]  rxPkOk:vector(packetBytes)  ETV
attr interpolationmode  none
attr source  rxPkOk
attr title  "packets received OK, vector(packetBytes)"
vector 40  industry4.gateway.etherMAC[0]  passedUpPk:vector(packetBytes)  ETV
attr interpolationmode  none
attr source  packetSentToUpper
attr title  "packets passed to higher layer, vector(packetBytes)"
vector 65  industry4.gateway.etherMAC[2]  rxPkFromHL:vector(packetBytes)  ETV
attr interpolationmode  none
attr source  rxPkFromHL
attr title  "packet bytes from higher layer, vector(packetBytes)"
vector 60  industry4.gateway.etherMAC[2]  txPk:vector(packetBytes)  ETV
attr interpolationmode  none
attr source  txPk
attr title  "packets transmitted, vector(packetBytes)"
vector 10  industry4.client.eth[0].mac  rxPkOk:vector(packetBytes)  ETV
attr interpolationmode  none
attr source  rxPkOk
attr title  "packets received OK, vector(packetBytes)"
vector 11  industry4.client.eth[0].mac  passedUpPk:vector(packetBytes)  ETV
attr interpolationmode  none
attr source  packetSentToUpper
attr title  "packets passed to higher layer, vector(packetBytes)"
vector 19  industry4.client.eth[0].encap  decapPk:vector(packetBytes)  ETV
attr interpolationmode  none
attr source  decapPk
attr title  "packets decapsulated, vector(packetBytes)"
vector 307  industry4.server.tcp  "rcvd seq"  ETV
vector 308  industry4.server.tcp  "rcvd ack"  ETV
vector 304  industry4.server.tcp  "advertised window"  ETV
vector 302  industry4.server.tcp  "send window"  ETV
vector 317  industry4.server.tcp  tcpRcvQueueBytes  ETV
vector 303  industry4.server.tcp  "receive window"  ETV
vector 306  industry4.server.tcp  "sent ack"  ETV
vector 427  industry4.client.tcp  "rcvd seq"  ETV
vector 428  industry4.client.tcp  "rcvd ack"  ETV
vector 422  industry4.client.tcp  "send window"  ETV
vector 1  industry4.client.tcpApp[0]  sentPk:vector(packetBytes)  ETV
attr interpolationmode  none
attr source  sentPk
attr title  "packets sent, vector(packetBytes)"
vector 425  industry4.client.tcp  "sent seq"  ETV
vector 429  industry4.client.tcp  "unacked bytes"  ETV
vector 309  industry4.server.tcp  "unacked bytes"  ETV
vector 310  industry4.server.tcp  "rcvd dupAcks"  ETV
vector 255  industry4.server.tcpApp[0]  rcvdPk:vector(packetBytes)  ETV
attr interpolationmode  none
attr source  rcvdPk
attr title  "packets received, vector(packetBytes)"
vector 257  industry4.server.tcpApp[0]  endToEndDelay:vector  ETV
attr interpolationmode  none
attr source  messageAge(rcvdPk)
attr title  "end-to-end delay, vector"
attr unit  s
vector 256  industry4.server.tcpApp[0]  sentPk:vector(packetBytes)  ETV
attr interpolationmode  none
attr source  sentPk
attr title  "packets sent, vector(packetBytes)"
vector 305  industry4.server.tcp  "sent seq"  ETV
vector 441  industry4.client.tcp  "measured RTT"  ETV
vector 442  industry4.client.tcp  "smoothed RTT"  ETV
vector 443  industry4.client.tcp  RTTVAR  ETV
vector 444  industry4.client.tcp  RTO  ETV
vector 439  industry4.client.tcp  cwnd  ETV
vector 430  industry4.client.tcp  "rcvd dupAcks"  ETV
vector 321  industry4.server.tcp  "measured RTT"  ETV
vector 322  industry4.server.tcp  "smoothed RTT"  ETV
vector 323  industry4.server.tcp  RTTVAR  ETV
vector 324  industry4.server.tcp  RTO  ETV
vector 319  industry4.server.tcp  cwnd  ETV
vector 0  industry4.client.tcpApp[0]  rcvdPk:vector(packetBytes)  ETV
attr interpolationmode  none
attr source  rcvdPk
attr title  "packets received, vector(packetBytes)"
vector 2  industry4.client.tcpApp[0]  endToEndDelay:vector  ETV
attr interpolationmode  none
attr source  messageAge(rcvdPk)
attr title  "end-to-end delay, vector"
attr unit  s
319	21688 60269 795 94793 0.005959055016 0.102249853061 1958 1072 72911 131810931 9073529405149
321	81957 5661 795 94307 0.005959055016 0.101783853072 143 0.00016776 0.000687679986 0.095999278055 6.5540471363396e-05
322	87618 5647 795 94307 0.005959055016 0.101783853072 143 2.1809999e-05 0.000687679977 0.091185517677 6.0833254281435e-05
323	93265 5447 795 94307 0.005959055016 0.101783853072 143 3.941e-09 0.65627181 5.255501413241 1.8388574395969
324	98712 3912 795 94307 0.005959055016 0.101783853072 143 1 2.625109049999 148.78859956415 160.94094810894
302	102624 58384 559 94793 0.005656975019 0.102249853061 1960 7504 7504 14707840 110367631360
303	161008 58395 559 94719 0.005656975019 0.102202573062 1961 7504 7504 14715344 110423941376
304	219403 58423 559 94719 0.005656975019 0.102202573062 1962 8877 9078 17808676 161645819408
305	277826 62085 721 94079 0.005784575017 0.101538253077 1957 1415 1049831 1028644211 7.2011964958034e+14
306	339911 58395 559 94719 0.005656975019 0.102202573062 1961 1373 1574 3084455 4851576263
307	398306 58442 559 94793 0.005656975019 0.102249853061 1962 1372 1574 3085626 4852866300
308	456748 62254 559 94793 0.005656975019 0.102249853061 1962 0 1049992 1031795600 7.2342709698279e+14
309	519002 116274 696 94793 0.005731295018 0.102249853061 3904 0 7504 28072561 203058967169
310	635276 52506 718 94793 0.005784575017 0.102249853061 1960 0 0 0 0
317	687782 52537 559 94719 0.005656975019 0.102202573062 1962 0 0 0 0
vector 470  industry4.product[0].phyRFID  bitrate:vector  ETV
attr interpolationmode  sample-hold
attr title  "tx bitrate, vector"
attr unit  bps
vector 472  industry4.product[0].phyRFID  radioState:vector  ETV
attr interpolationmode  sample-hold
attr title  "radio state (enum), vector"
vector 471  industry4.product[0].phyRFID  channelNo:vector  ETV
attr interpolationmode  sample-hold
attr title  "channel no, vector"
vector 475  industry4.product[1].phyRFID  bitrate:vector  ETV
attr interpolationmode  sample-hold
attr title  "tx bitrate, vector"
attr unit  bps
vector 477  industry4.product[1].phyRFID  radioState:vector  ETV
attr interpolationmode  sample-hold
attr title  "radio state (enum), vector"
vector 476  industry4.product[1].phyRFID  channelNo:vector  ETV
attr interpolationmode  sample-hold
attr title  "channel no, vector"
vector 277  industry4.RFIDProduct.phyRFID  snirVector  ETV
vector 138  industry4.RFIDProduct.tcpApp[0]  numActiveSessions:vector  ETV
attr interpolationmode  sample-hold
attr source  sum(connect)
attr title  "number of active sessions, vector"
vector 495  industry4.RFIDProduct.tcp  tcpRcvQueueBytes  ETV
vector 482  industry4.RFIDProduct.tcp  "advertised window"  ETV
vector 481  industry4.RFIDProduct.tcp  "receive window"  ETV
vector 484  industry4.RFIDProduct.tcp  "sent ack"  ETV
vector 143  industry4.RFIDProduct.networkLayer.arp  sentReq:vector  ETV
attr title  "ARP request sent, vector"
vector 157  industry4.RFIDProduct.eth[0].encap  encapPk:vector(packetBytes)  ETV
attr interpolationmode  none
attr source  encapPk
attr title  "packets encapsulated, vector(packetBytes)"
vector 153  industry4.RFIDProduct.eth[0].mac  rxPkFromHL:vector(packetBytes)  ETV
attr interpolationmode  none
attr source  rxPkFromHL
attr title  "packet bytes from higher layer, vector(packetBytes)"
vector 148  industry4.RFIDProduct.eth[0].mac  txPk:vector(packetBytes)  ETV
attr interpolationmode  none
attr source  txPk
attr title  "packets transmitted, vector(packetBytes)"
vector 183  industry4.switch2.etherMAC[2]  rxPkOk:vector(packetBytes)  ETV
attr interpolationmode  none
attr source  rxPkOk
attr title  "packets received OK, vector(packetBytes)"
vector 184  industry4.switch2.etherMAC[2]  passedUpPk:vector(packetBytes)  ETV
attr interpolationmode  none
attr source  packetSentToUpper
attr title  "packets passed to higher layer, vector(packetBytes)"
vector 106  industry4.RFIDWeigth.eth[0].mac  droppedPkNotForUs:vector(packetBytes)  ETV
attr interpolationmode  none
attr source  dropPkNotForUs
attr title  "packets dropped/not for us, vector(packetBytes)"
vector 131  industry4.RFIDSize.eth[0].mac  droppedPkNotForUs:vector(packetBytes)  ETV
attr interpolationmode  none
attr source  dropPkNotForUs
attr title  "packets dropped/not for us, vector(packetBytes)"
vector 34  industry4.supplier.eth[0].mac  droppedPkNotForUs:vector(packetBytes)  ETV
attr interpolationmode  none
attr source  dropPkNotForUs
attr title  "packets dropped/not for us, vector(packetBytes)"
vector 17  industry4.client.eth[0].mac  droppedPkNotForUs:vector(packetBytes)  ETV
attr interpolationmode  none
attr source  dropPkNotForUs
attr title  "packets dropped/not for us, vector(packetBytes)"
vector 451  industry4.server.tcp  "rcvd seq"  ETV
vector 452  industry4.server.tcp  "rcvd ack"  ETV
vector 448  industry4.server.tcp  "advertised window"  ETV
vector 446  industry4.server.tcp  "send window"  ETV
vector 461  industry4.server.tcp  tcpRcvQueueBytes  ETV
vector 447  industry4.server.tcp  "receive window"  ETV
vector 450  industry4.server.tcp  "sent ack"  ETV
vector 485  industry4.RFIDProduct.tcp  "rcvd seq"  ETV
vector 486  industry4.RFIDProduct.tcp  "rcvd ack"  ETV
vector 480  industry4.RFIDProduct.tcp  "send window"  ETV
vector 136  industry4.RFIDProduct.tcpApp[0]  sentPk:vector(packetBytes)  ETV
attr interpolationmode  none
attr source  sentPk
attr title  "packets sent, vector(packetBytes)"
vector 483  industry4.RFIDProduct.tcp  "sent seq"  ETV
vector 487  industry4.RFIDProduct.tcp  "unacked bytes"  ETV
vector 453  industry4.server.tcp  "unacked bytes"  ETV
vector 454  industry4.server.tcp  "rcvd dupAcks"  ETV
vector 449  industry4.server.tcp  "sent seq"  ETV
vector 499  industry4.RFIDProduct.tcp  "measured RTT"  ETV
vector 500  industry4.RFIDProduct.tcp  "smoothed RTT"  ETV
vector 501  industry4.RFIDProduct.tcp  RTTVAR  ETV
vector 502  industry4.RFIDProduct.tcp  RTO  ETV
vector 497  industry4.RFIDProduct.tcp  cwnd  ETV
vector 488  industry4.RFIDProduct.tcp  "rcvd dupAcks"  ETV
vector 465  industry4.server.tcp  "measured RTT"  ETV
vector 466  industry4.server.tcp  "smoothed RTT"  ETV
vector 467  industry4.server.tcp  RTTVAR  ETV
vector 468  industry4.server.tcp  RTO  ETV
vector 463  industry4.server.tcp  cwnd  ETV
vector 135  industry4.RFIDProduct.tcpApp[0]  rcvdPk:vector(packetBytes)  ETV
attr interpolationmode  none
attr source  rcvdPk
attr title  "packets received, vector(packetBytes)"
vector 137  industry4.RFIDProduct.tcpApp[0]  endToEndDelay:vector  ETV
attr interpolationmode  none
attr source  messageAge(rcvdPk)
attr title  "end-to-end delay, vector"
attr unit  s
463	745443 64380 104523 376915 12.010329409793 12.106562367836 1958 1072 72911 131810931 9073529405149
465	809823 6006 104523 375453 12.010329409793 12.106082847847 143 0.000132079999 0.000687679986 0.095892238052 6.5507896949862e-05
466	815829 5990 104523 375453 12.010329409793 12.106082847847 143 1.7349999e-05 0.000687679976 0.091078477715 6.0775203726128e-05
467	821819 5777 104523 375453 12.010329409793 12.106082847847 143 3.945e-09 0.65626735 5.25550141324 1.8388222720434
468	827596 4248 104523 375453 12.010329409793 12.106082847847 143 1 2.625086749999 148.78836781564 160.94008813075
446	831844 62503 104122 376915 12.010105569797 12.106562367836 1960 7504 7504 14707840 110367631360
447	894347 62536 104122 376656 12.010105569797 12.106501567837 1961 7504 7504 14715344 110423941376
448	956883 68454 104122 376656 12.010105569797 12.106501567837 1962 3010002 3010203 5906015926 1.7778299754497e+16
449	1025337 68279 104286 374770 12.010190609795 12.105837247852 1957 3002527 4050943 6901820395 2.4520332144221e+16
450	1093616 68419 104122 376656 12.010105569797 12.106501567837 1961 3002498 3002699 5888290580 1.7680757753491e+16
451	1162035 68453 104122 376915 12.010105569797 12.106562367836 1962 3002497 3002699 5891292876 1.7689771534681e+16
452	1230488 68447 104122 376915 12.010105569797 12.106562367836 1962 0 4051104 6916976232 2.4578581627259e+16
453	1298935 124477 104244 376915 12.010152849796 12.106562367836 3904 0 7504 28072561 203058967169
454	1423412 56623 104283 376915 12.010190609795 12.106562367836 1960 0 0 0 0
461	1480035 56682 104122 376656 12.010105569797 12.106501567837 1962 0 0 0 0